HEADER
"PSFversion" "1.00"
"I18n" "ALU_TOP"
"V19n V18n V17n V15n V14n V13n V12n V11n V10n V9n V8n V7n V6n V5n V4n V3n V2n V1n V0n" "analogLib_vpulse_spectre"
"V16n" "analogLib_vdc_spectre"
