HEADER
"PSFversion" "1.00"
"I1n I0n" "MUX41_F"
"I2n" "MUX21BAL_J"
"IN0v" ":1v"
"IN1v" ":2v"
"IN2v" ":3v"
"IN3v" ":4v"
"IN4v" ":5v"
"IN5v" ":6v"
"IN6v" ":7v"
"IN7v" ":8v"
"OUTv" ":9v"
"SEL<0>v" ":10v"
"SEL<1>v" ":11v"
"SEL<2>v" ":12v"
"[@gnd:%:gnd!]v" ":13v"
"[@vdd:%:vdd!]v" ":14v"
