HEADER
"PSFversion" "1.00"
"I22n I19n I18n I17n I21n I20n I23n I24n" "INVERT_A"
"Data0<0>v" ":1v"
"Data0<1>v" ":2v"
"Data0<2>v" ":3v"
"Data0<3>v" ":4v"
"Data0<4>v" ":5v"
"Data0<5>v" ":6v"
"Data0<6>v" ":7v"
"Data0<7>v" ":8v"
"OUT<0>v" ":9v"
"OUT<1>v" ":10v"
"OUT<2>v" ":11v"
"OUT<3>v" ":12v"
"OUT<4>v" ":13v"
"OUT<5>v" ":14v"
"OUT<6>v" ":15v"
"OUT<7>v" ":16v"
"[@gnd:%:gnd!]v" ":17v"
"[@vdd:%:vdd!]v" ":18v"
