HEADER
"PSFversion" "1.00"
"I10n I9n I8n I7n I6n I3n I5n I4n" "BUFFER_J"
"IN<0>v" ":1v"
"IN<1>v" ":2v"
"IN<2>v" ":3v"
"IN<3>v" ":4v"
"IN<4>v" ":5v"
"IN<5>v" ":6v"
"IN<6>v" ":7v"
"IN<7>v" ":8v"
"OUT<0>v" ":9v"
"OUT<1>v" ":10v"
"OUT<2>v" ":11v"
"OUT<3>v" ":12v"
"OUT<4>v" ":13v"
"OUT<5>v" ":14v"
"OUT<6>v" ":15v"
"OUT<7>v" ":16v"
"[@gnd:%:gnd!]v" ":17v"
"[@vdd:%:vdd!]v" ":18v"
