HEADER
"PSFversion" "1.00"
"TNX1n TNX2n TNX4n TNX3n TNZn TNCn TNBn TN1n TNAn TN2n" "cmrf7sf_nfetx_spectre"
"TPX1n TPX2n TPX4n TPX3n TPZn TPBn TP1n TPAn TPCn TP2n" "cmrf7sf_pfet_spectre"
"Av" ":1v"
"Bv" ":2v"
"Cv" ":3v"
"Zv" ":4v"
"gnd!v" ":5v"
"vdd!v" ":6v"
