HEADER
"PSFversion" "1.00"
"I1n I0n" "OR4_F"
"I2n" "OR2_F"
"I3n" "INVERT_J"
"IN<0>v" ":1v"
"IN<1>v" ":2v"
"IN<2>v" ":3v"
"IN<3>v" ":4v"
"IN<4>v" ":5v"
"IN<5>v" ":6v"
"IN<6>v" ":7v"
"IN<7>v" ":8v"
"ZEROv" ":9v"
"[@gnd:%:gnd!]v" ":10v"
"[@vdd:%:vdd!]v" ":11v"
