HEADER
"PSFversion" "1.00"
"PSFversion" "1.00"
"design" "(\"ECEC472_CPU\" \"ALU_SIM\" \"schematic\" \"\")"
"simulator" "spectre"
"temperature" "27"
"host" ""
"date" "Mar 10 09:32:58 2014"
"title" ""
"analysisList" "()"
END
